#     Step Nr.          Time[fs]        Kin.[a.u.]          Temp[K]            Pot.[a.u.]        Cons Qty[a.u.]        UsedTime[s]
         0            0.000000         0.014250669       300.000000000       -16.149144654       -16.134893985         0.000000000
         1            1.000000         0.011687061       246.031829888       -16.147556296       -16.134776368        12.437092705
         2            2.000000         0.008985403       189.157495917       -16.144685833       -16.134565695         3.648993080
         3            3.000000         0.007354581       154.826017280       -16.143496688       -16.134531389         3.654618791
         4            4.000000         0.008706808       183.292621219       -16.144552952       -16.134692349         3.216526030
         5            5.000000         0.008791876       185.083426101       -16.145665946       -16.134814331         3.209865360
         6            6.000000         0.008186722       172.343942373       -16.144844455       -16.134753541         3.653369350
         7            7.000000         0.006765680       142.428684179       -16.143280107       -16.134597693         3.654164119
         8            8.000000         0.007195312       151.473147868       -16.143339786       -16.134542817         3.646347734
         9            9.000000         0.009774183       205.762607507       -16.145567452       -16.134685575         3.214421076
        10           10.000000         0.012097274       254.667496978       -16.147889429       -16.134844258         3.215378260
        11           11.000000         0.012300101       258.937334422       -16.147828301       -16.134825204         3.654360036
        12           12.000000         0.010416077       219.275545693       -16.145689795       -16.134651507         3.211789806
        13           13.000000         0.008999581       189.455969782       -16.144110555       -16.134551564         3.651484248
        14           14.000000         0.009834260       207.027340175       -16.144418498       -16.134629212         3.214934528
        15           15.000000         0.010932832       230.154073681       -16.145525340       -16.134750795         3.653681805
        16           16.000000         0.011581641       243.812565964       -16.145784057       -16.134789929         3.220014637
        17           17.000000         0.009559801       201.249521490       -16.144624868       -16.134694706         3.649533713
        18           18.000000         0.009067407       190.883806784       -16.143717460       -16.134594936         3.651842208
        19           19.000000         0.009907718       208.573740686       -16.144695899       -16.134654551         3.649396626
        20           20.000000         0.011362477       239.198817529       -16.146473480       -16.134801325         3.214826556
        21           21.000000         0.011938728       251.329832535       -16.146867920       -16.134816630         3.214335265
        22           22.000000         0.011857151       249.612507318       -16.145597725       -16.134695420         3.651667070
        23           23.000000         0.011424816       240.511159297       -16.144401051       -16.134598586         3.656082724
        24           24.000000         0.011484282       241.763015310       -16.144846181       -16.134652910         3.216333079
        25           25.000000         0.012341611       259.811194352       -16.146138041       -16.134762911         3.215459281
        26           26.000000         0.012337784       259.730634944       -16.146605165       -16.134793967         3.654402055
        27           27.000000         0.012802596       269.515690372       -16.146124759       -16.134745313         3.223212188
        28           28.000000         0.012371085       260.431676000       -16.145221026       -16.134651718         3.218376097
        29           29.000000         0.012615156       265.569759128       -16.145260445       -16.134642412         3.657007446
        30           30.000000         0.013333085       280.683349320       -16.146162717       -16.134753329         3.217454129
        31           31.000000         0.013862503       291.828476808       -16.146505900       -16.134817788         3.660323089
        32           32.000000         0.011754251       247.446302671       -16.145329253       -16.134740304         3.219294006
        33           33.000000         0.010824813       227.880094175       -16.143857864       -16.134638343         3.660857109
        34           34.000000         0.009960704       209.689192593       -16.143463164       -16.134628023         3.220496980
        35           35.000000         0.010577947       222.683174104       -16.144009813       -16.134663000         3.222558783
        36           36.000000         0.011847580       249.411028177       -16.145146945       -16.134708177         3.656855281
        37           37.000000         0.012663727       266.592267370       -16.146165399       -16.134742970         3.221090933
        38           38.000000         0.012659461       266.502456732       -16.146444646       -16.134714650         3.224832734
        39           39.000000         0.012345328       259.889437103       -16.146460877       -16.134661196         3.216101204
        40           40.000000         0.012908921       271.753991635       -16.146999215       -16.134690202         3.657569079
        41           41.000000         0.013098220       275.739043919       -16.147530275       -16.134777976         3.216131972
        42           42.000000         0.012137586       255.516122941       -16.146842185       -16.134766211         3.218989857
        43           43.000000         0.010888625       229.223446503       -16.145388089       -16.134697243         3.667529320
        44           44.000000         0.009160740       192.848627316       -16.143902679       -16.134644960         3.223493234
        45           45.000000         0.008737975       183.948736167       -16.143011158       -16.134623692         3.224609796
        46           46.000000         0.009170522       193.054552647       -16.143041577       -16.134637869         3.221095291
        47           47.000000         0.010071016       212.011430867       -16.143617985       -16.134666647         3.221198916
        48           48.000000         0.010617375       223.513184082       -16.144547550       -16.134696643         3.663828336
        49           49.000000         0.011628571       244.800523191       -16.145400642       -16.134688522         3.658283186
        50           50.000000         0.012976096       273.168146317       -16.146142365       -16.134661429         3.216205450
        51           51.000000         0.014429238       303.759179111       -16.147145966       -16.134699421         3.657476956
        52           52.000000         0.015473805       325.749029837       -16.148098738       -16.134784137         3.660692561
        53           53.000000         0.015474509       325.763845711       -16.147739142       -16.134770081         3.658657718
        54           54.000000         0.013739779       289.244929697       -16.145926856       -16.134678331         3.218175901
        55           55.000000         0.012234240       257.550862336       -16.144043594       -16.134627980         3.663763284
        56           56.000000         0.010856393       228.544910917       -16.142695000       -16.134606141         3.655712761
        57           57.000000         0.010762558       226.569521695       -16.142442485       -16.134637255         3.661673158
        58           58.000000         0.010074932       212.093869161       -16.142728236       -16.134683749         3.222747657
        59           59.000000         0.009535316       200.734071408       -16.142994909       -16.134687632         3.215083748
        60           60.000000         0.010045572       211.475800939       -16.143253064       -16.134637054         3.221895861
        61           61.000000         0.010428856       219.544547393       -16.144280590       -16.134631071         3.660476867
        62           62.000000         0.011882450       250.145090598       -16.146330632       -16.134739065         3.656652101
        63           63.000000         0.013421390       282.542314774       -16.147998509       -16.134834764         3.220644667
        64           64.000000         0.013636625       287.073362632       -16.148093111       -16.134814450         3.220572592
        65           65.000000         0.011898111       250.474790984       -16.146758305       -16.134737687         3.662698539
        66           66.000000         0.011182228       235.404277304       -16.145437683       -16.134696334         3.226553208
        67           67.000000         0.010593689       223.014569424       -16.144874117       -16.134701537         3.228778687
        68           68.000000         0.010701079       225.275288457       -16.144704233       -16.134731248         3.228862665
        69           69.000000         0.010523507       221.537109385       -16.144501301       -16.134751800         3.225314276
        70           70.000000         0.010982816       231.206318200       -16.143874898       -16.134704678         3.224346343
        71           71.000000         0.010814968       227.672850369       -16.143399711       -16.134636241         3.223267201
        72           72.000000         0.010883847       229.122871440       -16.143802761       -16.134653245         3.227232430
        73           73.000000         0.011635965       244.956174500       -16.145110907       -16.134745865         3.220477394
        74           74.000000         0.012900845       271.583993649       -16.146054308       -16.134782655         3.224193717
        75           75.000000         0.013063409       275.006222479       -16.146155069       -16.134753943         3.223579997
        76           76.000000         0.012461536       262.335801870       -16.145595407       -16.134699925         3.222249594
        77           77.000000         0.012642508       266.145567631       -16.145321310       -16.134673704         3.668559771
        78           78.000000         0.013422649       282.568822877       -16.145885807       -16.134711852         3.223950130
        79           79.000000         0.013081735       275.392007202       -16.146205394       -16.134756288         3.227147721
        80           80.000000         0.013330832       280.635923324       -16.146012744       -16.134764159         3.219260945
        81           81.000000         0.012626204       265.802340563       -16.145167517       -16.134713825         3.225098392
        82           82.000000         0.011593150       244.054848087       -16.144475677       -16.134681959         3.668936467
        83           83.000000         0.011470201       241.466571957       -16.144480697       -16.134719582         3.224906803
        84           84.000000         0.011765723       247.687810218       -16.144761730       -16.134756334         3.224235475
        85           85.000000         0.011988667       252.381141211       -16.144429006       -16.134724974         3.225161390
        86           86.000000         0.011699389       246.291355399       -16.143772792       -16.134681985         3.665977603
        87           87.000000         0.011089062       233.442978726       -16.143526366       -16.134675239         3.666480816
        88           88.000000         0.012162266       256.035691984       -16.143885751       -16.134673142         3.665707237
        89           89.000000         0.013129954       276.407111404       -16.144659851       -16.134700522         3.228932896
        90           90.000000         0.012965750       272.950350921       -16.145331204       -16.134727481         3.666445259
        91           91.000000         0.012266698       258.234153926       -16.145411259       -16.134686891         3.661746796
        92           92.000000         0.011935067       251.252767804       -16.145708751       -16.134670707         3.667235540
        93           93.000000         0.012239910       257.670217816       -16.146270412       -16.134725997         3.227857441
        94           94.000000         0.012783756       269.119075808       -16.146361846       -16.134759641         3.220693919
        95           95.000000         0.011500063       242.095224361       -16.145718753       -16.134708393         3.661842185
        96           96.000000         0.010341301       217.701382165       -16.144526904       -16.134646931         3.663136720
        97           97.000000         0.009637655       202.888479021       -16.143708126       -16.134648475         3.662909835
        98           98.000000         0.009161729       192.869444284       -16.143674627       -16.134675751         3.669205151
        99           99.000000         0.008958410       188.589247216       -16.144272395       -16.134722362         3.225656848
       100          100.000000         0.009317137       196.141049625       -16.144922740       -16.134769036         3.226822973
       101          101.000000         0.008913286       187.639324671       -16.145358027       -16.134770603         3.224555845
       102          102.000000         0.009415201       198.205445842       -16.145730083       -16.134729590         3.665144482
       103          103.000000         0.010213707       215.015315524       -16.146798469       -16.134748712         3.230461440
       104          104.000000         0.011856955       249.608383495       -16.147900898       -16.134811080         3.221352413
       105          105.000000         0.011881545       250.126038010       -16.148445200       -16.134838987         3.664519451
       106          106.000000         0.010905499       229.578683893       -16.147931088       -16.134795960         3.224512414
       107          107.000000         0.009514888       200.304027493       -16.146881396       -16.134744660         3.661705479
       108          108.000000         0.009146086       192.540131377       -16.146387510       -16.134767398         3.226420539
       109          109.000000         0.009195978       193.590448218       -16.146085231       -16.134789907         3.224902324
       110          110.000000         0.008761602       184.446125073       -16.145773360       -16.134796518         3.227579120
       111          111.000000         0.008418866       177.230971779       -16.145476036       -16.134790136         3.225756645
       112          112.000000         0.007611006       160.224188680       -16.145317898       -16.134764416         3.219384386
       113          113.000000         0.008254178       173.764018263       -16.145998133       -16.134777216         3.669690119
       114          114.000000         0.008562745       180.259861336       -16.147003491       -16.134810488         3.225196786
       115          115.000000         0.009184010       193.338496876       -16.147480844       -16.134802794         3.224233601
       116          116.000000         0.009534078       200.708014626       -16.147846434       -16.134784033         3.660906341
       117          117.000000         0.010473576       220.485982698       -16.148416033       -16.134815688         3.223266790
       118          118.000000         0.010118263       213.006066087       -16.148686998       -16.134848835         3.227376260
       119          119.000000         0.010044518       211.453604612       -16.148255650       -16.134839689         3.662791714
       120          120.000000         0.009566004       201.380112111       -16.147323186       -16.134795866         3.229357081
       121          121.000000         0.008822532       185.728795207       -16.146509580       -16.134772814         3.228109033
       122          122.000000         0.008714995       183.464956172       -16.146057763       -16.134782297         3.226664496
       123          123.000000         0.008881587       186.972002881       -16.145853889       -16.134802398         3.662375524
       124          124.000000         0.008164086       171.867420422       -16.145478069       -16.134787563         3.223123421
       125          125.000000         0.007931175       166.964264694       -16.145274226       -16.134771715         3.224820972
       126          126.000000         0.007859011       165.445087037       -16.145299158       -16.134756987         3.225037137
       127          127.000000         0.008578146       180.584061290       -16.145822415       -16.134761494         3.667422370
       128          128.000000         0.009782347       205.934470850       -16.146834528       -16.134798298         3.226435798
       129          129.000000         0.010168291       214.059230670       -16.147787793       -16.134835067         3.232734579
       130          130.000000         0.010729012       225.863341590       -16.148167224       -16.134823152         3.228667108
       131          131.000000         0.010580988       222.747177545       -16.148396334       -16.134808053         3.225034332
       132          132.000000         0.010167192       214.036096102       -16.148575474       -16.134818184         3.231545481
       133          133.000000         0.010033320       211.217869593       -16.148543574       -16.134847552         3.231545000
       134          134.000000         0.009849057       207.338832184       -16.147989171       -16.134848932         3.227738879
       135          135.000000         0.009091852       191.398422210       -16.146552029       -16.134780729         3.664867904
       136          136.000000         0.007861027       165.487532815       -16.145533786       -16.134752188         3.663953000
       137          137.000000         0.008129372       171.136630519       -16.145394111       -16.134772875         3.671540216
       138          138.000000         0.008635104       181.783118246       -16.145667829       -16.134800777         3.227176776
       139          139.000000         0.008657752       182.259896781       -16.145813145       -16.134801585         3.667106949
       140          140.000000         0.009065050       190.834204629       -16.145979538       -16.134786186         3.229593915
       141          141.000000         0.009640295       202.944046249       -16.146518683       -16.134779227         3.231512750
       142          142.000000         0.010567483       222.462875684       -16.147388295       -16.134797598         3.233219889
       143          143.000000         0.011786102       248.116816594       -16.148374273       -16.134839730         3.228430565
       144          144.000000         0.012598255       265.213977697       -16.148824988       -16.134866134         3.231266428
       145          145.000000         0.012004448       252.713364624       -16.148235436       -16.134826272         3.228441716
       146          146.000000         0.011119482       234.083372543       -16.147059338       -16.134772007         3.668255601
       147          147.000000         0.009793213       206.163219482       -16.146177199       -16.134777733         3.669509280
       148          148.000000         0.009278070       195.318627523       -16.145269734       -16.134770123         3.230761212
       149          149.000000         0.008587296       180.776697272       -16.144393552       -16.134752308         3.668125868
       150          150.000000         0.007670969       161.486497218       -16.143838059       -16.134743098         3.665339608
       151          151.000000         0.007834383       164.926632838       -16.143798653       -16.134732873         3.229033655
       152          152.000000         0.008656062       182.224334992       -16.144279396       -16.134729621         3.668095642
       153          153.000000         0.009422292       198.354722415       -16.145503215       -16.134763694         3.233206173
       154          154.000000         0.011332816       238.574403404       -16.146982182       -16.134807015         3.232145876
       155          155.000000         0.012838909       270.280129320       -16.148017641       -16.134815902         3.229026311
       156          156.000000         0.012902772       271.624554056       -16.148301317       -16.134787825         3.226738835
       157          157.000000         0.013639400       287.131773091       -16.148187621       -16.134777521         3.230997885
       158          158.000000         0.012265944       258.218267013       -16.147757863       -16.134776953         3.228233275
       159          159.000000         0.011278142       237.423411711       -16.147142159       -16.134793524         3.228930001
       160          160.000000         0.009852464       207.410555543       -16.145949334       -16.134783613         3.237019257
       161          161.000000         0.008334780       175.460814139       -16.144181596       -16.134732850         3.232863080
       162          162.000000         0.007054905       148.517336095       -16.142698793       -16.134682494         3.236200834
       163          163.000000         0.006575245       138.419718709       -16.142275945       -16.134677699         3.237452299
       164          164.000000         0.007383253       155.429603351       -16.143176566       -16.134738405         3.235859214
       165          165.000000         0.008975539       188.949835426       -16.144320834       -16.134793913         3.230276313
       166          166.000000         0.009812328       206.565636182       -16.144924212       -16.134758567         3.234371376
       167          167.000000         0.010818664       227.750658993       -16.145355523       -16.134682050         3.226224752
       168          168.000000         0.011702956       246.366455247       -16.146490538       -16.134694964         3.239629819
       169          169.000000         0.013019647       274.084971842       -16.148185892       -16.134796549         3.231595896
       170          170.000000         0.013124184       276.285640786       -16.148952963       -16.134854491         3.229449063
       171          171.000000         0.012400777       261.056742046       -16.147701151       -16.134793328         3.236174955
       172          172.000000         0.010019395       210.924733640       -16.145450020       -16.134694956         3.675274743
       173          173.000000         0.008803721       185.332793683       -16.143517989       -16.134639370         3.678230431
       174          174.000000         0.008656346       182.230297492       -16.142930715       -16.134665702         3.235680729
       175          175.000000         0.008656761       182.239042000       -16.143020491       -16.134726683         3.234620863
       176          176.000000         0.009024349       189.977378870       -16.142844518       -16.134736303         3.229253287
       177          177.000000         0.008578936       180.600690901       -16.142523945       -16.134669702         3.239306763
       178          178.000000         0.008902597       187.414287808       -16.143030949       -16.134632584         3.237836088
       179          179.000000         0.010377196       218.457031980       -16.144637468       -16.134668244         3.236621983
       180          180.000000         0.012843996       270.387220602       -16.146825481       -16.134761538         3.235340652
       181          181.000000         0.014508769       305.433438085       -16.148082561       -16.134803808         3.675352158
       182          182.000000         0.014643233       308.264119712       -16.147783380       -16.134772511         3.676260219
       183          183.000000         0.012758216       268.581410062       -16.146570538       -16.134726124         3.674310486
       184          184.000000         0.011379701       239.561413540       -16.145493414       -16.134709676         3.233477642
       185          185.000000         0.010274382       216.292616301       -16.144693064       -16.134716968         3.237518462
       186          186.000000         0.010076296       212.122590221       -16.144095113       -16.134728276         3.233084515
       187          187.000000         0.009480758       199.585533205       -16.143390910       -16.134702844         3.232822013
       188          188.000000         0.009681435       203.810114590       -16.142935290       -16.134663160         3.677140799
       189          189.000000         0.009976711       210.026156135       -16.143173837       -16.134665807         3.677641477
       190          190.000000         0.011954563       251.663200743       -16.144355287       -16.134725191         3.235500291
       191          191.000000         0.012192170       256.665219880       -16.145294261       -16.134753278         3.233973991
       192          192.000000         0.013200923       277.901114005       -16.145741941       -16.134744137         3.236332621
       193          193.000000         0.013251035       278.956070915       -16.145930562       -16.134733285         3.676913483
       194          194.000000         0.013594516       286.186891675       -16.145915350       -16.134728676         3.233986405
       195          195.000000         0.013493015       284.050136534       -16.145824991       -16.134724079         3.237524484
       196          196.000000         0.013738132       289.210255308       -16.145721830       -16.134725227         3.232134214
       197          197.000000         0.014600388       307.362153130       -16.145348020       -16.134715810         3.236496698
       198          198.000000         0.013819290       290.918768956       -16.144804541       -16.134696745         3.675442357
       199          199.000000         0.012363527       260.272564528       -16.144268763       -16.134692358         3.234086202
       200          200.000000         0.011985993       252.324858270       -16.144010504       -16.134724749         3.673130205
       201          201.000000         0.010977163       231.087322717       -16.143455317       -16.134726390         3.231746708
       202          202.000000         0.010182209       214.352238883       -16.142751141       -16.134665353         3.675473315
       203          203.000000         0.009618164       202.478162958       -16.142803759       -16.134662285         3.680828809
       204          204.000000         0.010477112       220.560419449       -16.143730338       -16.134728971         3.230995300
       205          205.000000         0.010788092       227.107053422       -16.144379566       -16.134744024         3.237259718
       206          206.000000         0.011728331       246.900648167       -16.144656043       -16.134711280         3.235439848
       207          207.000000         0.011650447       245.261045409       -16.144673722       -16.134677357         3.232538782
       208          208.000000         0.011685540       245.999825466       -16.144959694       -16.134664360         3.232934434
       209          209.000000         0.013185945       277.585814550       -16.145698652       -16.134708649         3.234014327
       210          210.000000         0.013782958       290.153909278       -16.146086805       -16.134771937         3.226421521
       211          211.000000         0.012963583       272.904731819       -16.145175181       -16.134767860         3.231407583
       212          212.000000         0.010925939       230.008972478       -16.143488185       -16.134675899         3.672762245
       213          213.000000         0.009666427       203.494176045       -16.142133027       -16.134622520         3.231052307
       214          214.000000         0.009588956       201.863272779       -16.142137171       -16.134689431         3.669781270
       215          215.000000         0.009337132       196.561981466       -16.142270065       -16.134730234         3.234227607
       216          216.000000         0.008467340       178.251414143       -16.141514569       -16.134669553         3.230519339
       217          217.000000         0.007880475       165.896945395       -16.141142115       -16.134605402         3.234222046
       218          218.000000         0.008900937       187.379346204       -16.141517815       -16.134578959         3.236014565
       219          219.000000         0.010063317       211.849368181       -16.143273189       -16.134621634         3.672958814
       220          220.000000         0.012840689       270.317593784       -16.145164061       -16.134689132         3.233452003
       221          221.000000         0.014104040       296.913209823       -16.146594827       -16.134769047         3.674323090
       222          222.000000         0.013513467       284.480687797       -16.146416480       -16.134748651         3.679723689
       223          223.000000         0.012287221       258.666197928       -16.145035798       -16.134637056         3.669321188
       224          224.000000         0.011804063       248.494913265       -16.143843884       -16.134605539         3.672593820
       225          225.000000         0.011415493       240.314890503       -16.143230679       -16.134693146         3.236166960
       226          226.000000         0.009671613       203.603353637       -16.142012420       -16.134696429         3.232969029
       227          227.000000         0.008047593       169.415053028       -16.140454434       -16.134622967         3.679621677