      10
 i =        0, time =        0.000, E =       -16.1491446544
  C         4.0325059260        3.6725515990        3.4523234120
  H         4.3815433860        3.0686080070        2.6057301420
  H         2.9453965570        3.8032056890        3.3846884000
  H         4.5209242830        4.6545028530        3.4270873780
  H         4.2818530470        3.1641475520        4.3918265680
  C         6.0325059260        5.6725515990        5.4523234120
  H         6.3815433860        5.0686080070        4.6057301420
  H         4.9453965570        5.8032056890        5.3846884000
  H         6.5209242830        6.6545028530        5.4270873780
  H         6.2818530470        5.1641475520        6.3918265680
      10
 i =        1, time =        1.000, E =       -16.1475562958
  C         4.0350430510        3.6716417396        3.4497831858
  H         4.3858182661        3.0657995449        2.5986134519
  H         2.9341636418        3.7951303050        3.3690631874
  H         4.5481978264        4.6338226132        3.4367197939
  H         4.3055654849        3.1572357217        4.3973895918
  C         6.0308415770        5.6730877524        5.4578651515
  H         6.3765968099        5.0613384156        4.6179408005
  H         4.9165473435        5.7883692752        5.3722922119
  H         6.4974900972        6.6756294357        5.4115817166
  H         6.2757365262        5.1981758519        6.3816950620
      10
 i =        2, time =        2.000, E =       -16.1446858328
  C         4.0367835222        3.6701804345        3.4476428761
  H         4.3901093682        3.0633979818        2.5917728829
  H         2.9289839428        3.7847418013        3.3536294190
  H         4.5738394911        4.6154336293        3.4472041507
  H         4.3256177348        3.1501400409        4.3990895070
  C         6.0284727585        5.6746897860        5.4622774481
  H         6.3730574253        5.0529729504        4.6317644516
  H         4.8955246879        5.7709377196        5.3598443541
  H         6.4749403524        6.6913966345        5.3970861366
  H         6.2726269794        5.2280086102        6.3796955898
      10
 i =        3, time =        3.000, E =       -16.1434966881
  C         4.0380009795        3.6682322748        3.4466671851
  H         4.3926246025        3.0626874725        2.5873231416
  H         2.9292633115        3.7765862780        3.3387341477
  H         4.5969198743        4.5999892323        3.4538104525
  H         4.3400709718        3.1459688868        4.3949929712
  C         6.0240714778        5.6772674388        5.4651215534
  H         6.3700493716        5.0438337904        4.6447221031
  H         4.8867340838        5.7540338756        5.3508662641
  H         6.4534955885        6.7031740532        5.3806816330
  H         6.2716344459        5.2496268441        6.3916468541
      10
 i =        4, time =        4.000, E =       -16.1445529519
  C         4.0387375092        3.6663158834        3.4454313218
  H         4.3955146280        3.0609069679        2.5870022006
  H         2.9384939151        3.7685340837        3.3282113218
  H         4.6171822312        4.5896837725        3.4580584443
  H         4.3497920522        3.1462268183        4.3832493481
  C         6.0176320271        5.6803301238        5.4668130656
  H         6.3685171534        5.0366884317        4.6589560490
  H         4.8906034786        5.7399136152        5.3470591016
  H         6.4299942708        6.7107651447        5.3627691292
  H         6.2746496308        5.2650395523        6.4183970106
      10
 i =        5, time =        5.000, E =       -16.1456659461
  C         4.0400931322        3.6630441559        3.4454187470
  H         4.4007140350        3.0589110322        2.5889326983
  H         2.9515412975        3.7616427622        3.3241793790
  H         4.6330609270        4.5842566268        3.4605214930
  H         4.3518041738        3.1461001933        4.3671560717
  C         6.0104346892        5.6848570326        5.4678713220
  H         6.3696145899        5.0302668556        4.6733038120
  H         4.9056735359        5.7253201326        5.3463865952
  H         6.4039904757        6.7104130704        5.3474221932
  H         6.2777000664        5.2788747169        6.4547914631
      10
 i =        6, time =        6.000, E =       -16.1448444553
  C         4.0425832545        3.6598309474        3.4447116590
  H         4.4052363394        3.0608473970        2.5982244374
  H         2.9659033196        3.7575795610        3.3238732405
  H         4.6440478313        4.5817875167        3.4619639913
  H         4.3500094894        3.1443479538        4.3536596502
  C         6.0035762960        5.6890051426        5.4682678182
  H         6.3762284508        5.0234701651        4.6872197968
  H         4.9251373882        5.7118047234        5.3495443294
  H         6.3813800229        6.7057873403        5.3331953238
  H         6.2834556796        5.2938071820        6.4910884593
      10
 i =        7, time =        7.000, E =       -16.1432801065
  C         4.0460551614        3.6560554256        3.4434283457
  H         4.4118237172        3.0627678067        2.6060471108
  H         2.9782902970        3.7581410020        3.3241873403
  H         4.6467781516        4.5819135985        3.4597474725
  H         4.3425590851        3.1383608870        4.3454923790
  C         5.9976112177        5.6930236559        5.4690221829
  H         6.3873036136        5.0119951618        4.7012857927
  H         4.9398818035        5.6993269709        5.3537244395
  H         6.3607824249        6.7014616391        5.3169330202
  H         6.2884240481        5.3128809932        6.5143136767
      10
 i =        8, time =        8.000, E =       -16.1433397863
  C         4.0511252047        3.6528759279        3.4419564701
  H         4.4194744824        3.0608215630        2.6103094045
  H         2.9856886126        3.7641226574        3.3273803420
  H         4.6399181585        4.5829324714        3.4548698765
  H         4.3345714955        3.1256213793        4.3413444438
  C         5.9924815711        5.6967164399        5.4706142810
  H         6.4014006279        5.0003927038        4.7161752231
  H         4.9421204912        5.6869232984        5.3617124925
  H         6.3432261970        6.7032857076        5.3012806528
  H         6.2885285939        5.3376357105        6.5242059850
      10
 i =        9, time =        9.000, E =       -16.1455674521
  C         4.0567913887        3.6504112480        3.4413696224
  H         4.4295339555        3.0584351047        2.6119624497
  H         2.9841842316        3.7753068177        3.3296845371
  H         4.6281359971        4.5846043120        3.4479459918
  H         4.3239055631        3.1077149184        4.3448209796
  C         5.9893991512        5.6999977219        5.4728281930
  H         6.4206401272        4.9902908771        4.7345462668
  H         4.9285794107        5.6762989245        5.3711829542
  H         6.3288480458        6.7124235422        5.2854346221
  H         6.2830512475        5.3669416012        6.5231012775
      10
 i =       10, time =       10.000, E =       -16.1478894287
  C         4.0628861191        3.6475270779        3.4411985655
  H         4.4403607978        3.0521034858        2.6103494662
  H         2.9790846498        3.7883142335        3.3324144973
  H         4.6118205258        4.5908604716        3.4389948245
  H         4.3133723087        3.0867284665        4.3523100582
  C         5.9878424422        5.7025156841        5.4759666045
  H         6.4405940395        4.9857708159        4.7549446697
  H         4.9040414428        5.6652789797        5.3827085139
  H         6.3158805372        6.7244422447        5.2680176396
  H         6.2752017796        5.4031822769        6.5098966917
      10
 i =       11, time =       11.000, E =       -16.1478283011
  C         4.0688081315        3.6445482572        3.4406906723
  H         4.4541559785        3.0452380920        2.6049127317
  H         2.9757703373        3.8034188306        3.3360446910
  H         4.5905619756        4.5995673873        3.4315864372
  H         4.3017932425        3.0678974169        4.3593479033
  C         5.9870471602        5.7046312581        5.4787119114
  H         6.4592227958        4.9821137538        4.7778048325
  H         4.8773943791        5.6546380059        5.3924027076
  H         6.3046915959        6.7366933099        5.2501866739
  H         6.2632279088        5.4392247699        6.4945820878
      10
 i =       12, time =       12.000, E =       -16.1456897952
  C         4.0746436088        3.6414477141        3.4399224657
  H         4.4692052299        3.0387290516        2.5976913021
  H         2.9750103950        3.8179809136        3.3392679186
  H         4.5689638531        4.6101399350        3.4230355625
  H         4.2869945395        3.0529592298        4.3632069154
  C         5.9863804821        5.7071116932        5.4816284083
  H         6.4725554483        4.9814725472        4.8038036418
  H         4.8556344954        5.6421545685        5.4003737725
  H         6.2935428543        6.7459314890        5.2324721160
  H         6.2531324935        5.4779142486        6.4827726195
      10
 i =       13, time =       13.000, E =       -16.1441105551
  C         4.0795533663        3.6374125299        3.4387989586
  H         4.4820042378        3.0322670592        2.5918667956
  H         2.9819763834        3.8288925070        3.3400017098
  H         4.5521435024        4.6222107457        3.4167645462
  H         4.2732860944        3.0452977896        4.3638588646
  C         5.9849892261        5.7102619032        5.4832335008
  H         6.4853597990        4.9838120462        4.8310551354
  H         4.8426977115        5.6292905274        5.4079859856
  H         6.2804154458        6.7477646268        5.2148980846
  H         6.2454374311        5.5156396353        6.4865965001
      10
 i =       14, time =       14.000, E =       -16.1444184978
  C         4.0848150876        3.6331695256        3.4372630523
  H         4.4905896938        3.0277183431        2.5894046122
  H         2.9929771452        3.8364773058        3.3398679617
  H         4.5371769579        4.6311931759        3.4135609215
  H         4.2590725143        3.0430303767        4.3638758704
  C         5.9827976115        5.7137218046        5.4835556077
  H         6.4957225392        4.9876018075        4.8594224625
  H         4.8452454699        5.6154822129        5.4144979335
  H         6.2654232155        6.7416587681        5.1990674771
  H         6.2460925879        5.5519551309        6.5044077257
      10
 i =       15, time =       15.000, E =       -16.1455253396
  C         4.0899012117        3.6289426885        3.4354813278
  H         4.4940108106        3.0246417488        2.5876209848
  H         3.0094617829        3.8399270381        3.3381077311
  H         4.5263590548        4.6377752109        3.4153907225
  H         4.2446883849        3.0484414564        4.3587269992
  C         5.9790623018        5.7178695912        5.4827851073
  H         6.5050517491        4.9886168932        4.8866632735
  H         4.8623777476        5.6039401291        5.4188520573
  H         6.2523382365        6.7334692168        5.1835143320
  H         6.2528651525        5.5892685350        6.5286722071
      10
 i =       16, time =       16.000, E =       -16.1457840572
  C         4.0955054147        3.6240084345        3.4338692103
  H         4.4904493268        3.0276688856        2.5869404003
  H         3.0271367488        3.8372633437        3.3323334253
  H         4.5208363839        4.6389389723        3.4213459920
  H         4.2301325057        3.0578282346        4.3537366201
  C         5.9745393987        5.7219969097        5.4827295914
  H         6.5147646473        4.9852758827        4.9107123893
  H         4.8890000938        5.5926754392        5.4200584899
  H         6.2383639360        6.7251188961        5.1670627616
  H         6.2606062641        5.6281129563        6.5554016453
      10
 i =       17, time =       17.000, E =       -16.1446248681
  C         4.1013807522        3.6191007840        3.4320951628
  H         4.4842822121        3.0325125432        2.5863687041
  H         3.0368273600        3.8306258785        3.3237661475
  H         4.5200093763        4.6374435040        3.4293143510
  H         4.2207325937        3.0689244462        4.3507485398
  C         5.9707495379        5.7264922369        5.4834200788
  H         6.5261485514        4.9793817740        4.9326661143
  H         4.9143094542        5.5822510769        5.4219636470
  H         6.2224034017        6.7194457073        5.1483146578
  H         6.2654760035        5.6647275719        6.5771635600
      10
 i =       18, time =       18.000, E =       -16.1437174595
  C         4.1074625404        3.6148652152        3.4296750925
  H         4.4792285368        3.0378213109        2.5840353291
  H         3.0421199844        3.8204654976        3.3157799272
  H         4.5232925678        4.6349726811        3.4391273747
  H         4.2138331955        3.0787264031        4.3527964762
  C         5.9677694399        5.7307741655        5.4857165899
  H         6.5365260031        4.9693633792        4.9477098733
  H         4.9306405030        5.5692697625        5.4228051954
  H         6.2049048962        6.7229112864        5.1265006911
  H         6.2681114006        5.7014885440        6.5880663155
      10
 i =       19, time =       19.000, E =       -16.1446958995
  C         4.1132916717        3.6121971227        3.4274977435
  H         4.4722682494        3.0452741445        2.5830906703
  H         3.0423545150        3.8047055578        3.3031748127
  H         4.5297920905        4.6301047953        3.4490884105
  H         4.2139586807        3.0871407816        4.3630510600
  C         5.9671876499        5.7356833046        5.4902824201
  H         6.5465704729        4.9583698944        4.9616987074
  H         4.9314882274        5.5539711244        5.4240712762
  H         6.1884427099        6.7308986373        5.1017676894
  H         6.2659020687        5.7373936765        6.5853803797
      10
 i =       20, time =       20.000, E =       -16.1464734800
  C         4.1185306819        3.6106668749        3.4254260459
  H         4.4703337573        3.0488513677        2.5771693680
  H         3.0381962890        3.7883823565        3.2873976711
  H         4.5375897833        4.6236247651        3.4604684571
  H         4.2174627460        3.0935665487        4.3801385050
  C         5.9684260378        5.7411755456        5.4956729956
  H         6.5550942586        4.9489635434        4.9756657234
  H         4.9162079652        5.5369048481        5.4253857948
  H         6.1736212152        6.7381194975        5.0753839599
  H         6.2614511068        5.7732794225        6.5723907527
      10
 i =       21, time =       21.000, E =       -16.1468679200
  C         4.1221650394        3.6105384515        3.4233741500
  H         4.4728830545        3.0506709356        2.5699365127
  H         3.0321846590        3.7681567020        3.2703321176
  H         4.5477231732        4.6157365707        3.4729447320
  H         4.2243382210        3.0991048187        4.3981063966
  C         5.9710956063        5.7463993468        5.5016394215
  H         6.5608766729        4.9433112921        4.9921428353
  H         4.8935321257        5.5181522307        5.4251564233
  H         6.1590527198        6.7428015908        5.0500447814
  H         6.2547302570        5.8089567467        6.5548200945
      10
 i =       22, time =       22.000, E =       -16.1455977246
  C         4.1248110092        3.6107512425        3.4218934554
  H         4.4805983632        3.0461827024        2.5647366079
  H         3.0284062730        3.7427506992        3.2513543485
  H         4.5609544826        4.6084272329        3.4837232494
  H         4.2333778604        3.1055746375        4.4120025291
  C         5.9740235054        5.7514328828        5.5074924310
  H         6.5618597573        4.9437200286        5.0109054494
  H         4.8732071799        5.5021124704        5.4299161692
  H         6.1405553907        6.7431276842        5.0240048523
  H         6.2482421085        5.8438604142        6.5378681531
      10
 i =       23, time =       23.000, E =       -16.1444010508
  C         4.1267351925        3.6105524584        3.4205378524
  H         4.4952398934        3.0400428405        2.5623269535
  H         3.0276988385        3.7150876841        3.2314976721
  H         4.5769614494        4.6028244012        3.4942179941
  H         4.2438438910        3.1149745818        4.4183632198
  C         5.9759796528        5.7564400507        5.5127736149
  H         6.5599474128        4.9461900588        5.0327251439
  H         4.8651410845        5.4878517333        5.4353725987
  H         6.1193986369        6.7388718335        4.9979266594
  H         6.2420363830        5.8789571894        6.5313012885
      10
 i =       24, time =       24.000, E =       -16.1448461809
  C         4.1276091691        3.6106445791        3.4190719259
  H         4.5151270373        3.0366774177        2.5626696474
  H         3.0337848345        3.6904047153        3.2158126506
  H         4.5934844546        4.5991139797        3.5020844571
  H         4.2566035118        3.1244578720        4.4175374655
  C         5.9767326514        5.7614747497        5.5163928809
  H         6.5575273266        4.9528254711        5.0545270204
  H         4.8693737186        5.4760704050        5.4443028295
  H         6.0995378669        6.7261979713        4.9711152684
  H         6.2396717867        5.9174472599        6.5378971584
      10
 i =       25, time =       25.000, E =       -16.1461380409
  C         4.1270113324        3.6108567657        3.4176041608
  H         4.5398982485        3.0316321466        2.5681024411
  H         3.0448910523        3.6672272081        3.2034254522
  H         4.6091938830        4.5954262531        3.5065022063
  H         4.2705801781        3.1335010278        4.4108149210
  C         5.9763404128        5.7659007829        5.5179314705
  H         6.5575098696        4.9638112370        5.0761158670
  H         4.8853454165        5.4671395073        5.4575428224
  H         6.0802638864        6.7096546784        4.9463778665
  H         6.2414242416        5.9550100214        6.5564372424
      10
 i =       26, time =       26.000, E =       -16.1466051653
  C         4.1261556222        3.6109276869        3.4157664979
  H         4.5667552849        3.0243811679        2.5785961816
  H         3.0568518771        3.6478314228        3.1951584220
  H         4.6239523714        4.5917797497        3.5052988098
  H         4.2831888407        3.1412339286        4.3961526884
  C         5.9743433473        5.7698923208        5.5191190664
  H         6.5602862245        4.9712398621        5.0957651367
  H         4.9097755862        5.4598165330        5.4734398959
  H         6.0623603468        6.6912595876        4.9210307358
  H         6.2461238054        5.9909609763        6.5725998604
      10
 i =       27, time =       27.000, E =       -16.1461247588
  C         4.1254406693        3.6110157715        3.4130289229
  H         4.5929603597        3.0187284624        2.5958620490
  H         3.0700857647        3.6327085589        3.1888178978
  H         4.6332405500        4.5875819820        3.4990630462
  H         4.2981414652        3.1445477931        4.3775976044
  C         5.9715562031        5.7743874826        5.5207861773
  H         6.5687622406        4.9753589184        5.1143223729
  H         4.9343265391        5.4530480200        5.4911609266
  H         6.0457492119        6.6699637271        4.8915283715
  H         6.2517869003        6.0231425354        6.5806198341
      10
 i =       28, time =       28.000, E =       -16.1452210260
  C         4.1253735129        3.6104705469        3.4101178144
  H         4.6218877612        3.0117367143        2.6166571823
  H         3.0785346701        3.6222827758        3.1831666553
  H         4.6384173108        4.5824675019        3.4880279897
  H         4.3145334170        3.1430931283        4.3585266561
  C         5.9684230455        5.7792982156        5.5234983664
  H         6.5822761342        4.9734934783        5.1310373467
  H         4.9565563154        5.4474148350        5.5105717141
  H         6.0315056944        6.6473729344        4.8636271352
  H         6.2558289443        6.0493826653        6.5800580688
      10
 i =       29, time =       29.000, E =       -16.1452604449
  C         4.1265012073        3.6101195047        3.4065477966
  H         4.6538587159        3.0038752190        2.6386189465
  H         3.0785123406        3.6181536361        3.1757500581
  H         4.6381223556        4.5777662164        3.4710475960
  H         4.3299655075        3.1335253900        4.3457839068
  C         5.9659371157        5.7851315742        5.5269578201
  H         6.6002534394        4.9695712662        5.1502672665
  H         4.9674890820        5.4371979784        5.5334820841
  H         6.0236645655        6.6267134307        4.8343843948
  H         6.2584564701        6.0720844027        6.5702938362
      10
 i =       30, time =       30.000, E =       -16.1461627170
  C         4.1275685225        3.6091126382        3.4022126781
  H         4.6839620395        2.9999865687        2.6596872663
  H         3.0745763854        3.6192631663        3.1671798700
  H         4.6339400161        4.5763237724        3.4487266831
  H         4.3463582411        3.1218997494        4.3406999344
  C         5.9649743292        5.7914966180        5.5312257818
  H         6.6178522022        4.9677743308        5.1710910879
  H         4.9644261060        5.4201270609        5.5576983194
  H         6.0178573060        6.6112930274        4.8056349690
  H         6.2596416984        6.0945841557        6.5525128584
      10
 i =       31, time =       31.000, E =       -16.1465059003
  C         4.1298246372        3.6069920218        3.3974987435
  H         4.7132863760        3.0008739887        2.6800699523
  H         3.0658523734        3.6235498434        3.1534188657
  H         4.6247867478        4.5773160362        3.4246697483
  H         4.3586738649        3.1071826709        4.3450611185
  C         5.9644140211        5.7974908483        5.5355169054
  H         6.6341812248        4.9699924106        5.1943128215
  H         4.9537538797        5.4011051222        5.5786465446
  H         6.0124576345        6.5992573860        4.7774400378
  H         6.2627803606        6.1159028977        6.5323408114
      10
 i =       32, time =       32.000, E =       -16.1453292531
  C         4.1324322175        3.6046361946        3.3921647516
  H         4.7392907991        3.0059303997        2.6967384127
  H         3.0558805303        3.6288486720        3.1407175414
  H         4.6167495553        4.5836737933        3.4013476991
  H         4.3664288204        3.0951759505        4.3547592122
  C         5.9641883270        5.8030551439        5.5394134687
  H         6.6461193629        4.9757744658        5.2205010333
  H         4.9399631813        5.3820886559        5.5974488326
  H         6.0061726536        6.5868944506        4.7517965111
  H         6.2681244335        6.1399061370        6.5112660950
      10
 i =       33, time =       33.000, E =       -16.1438578644
  C         4.1359118515        3.6021167912        3.3871042511
  H         4.7606524185        3.0110282323        2.7083882876
  H         3.0526837114        3.6352845032        3.1319137242
  H         4.6058087385        4.5917714248        3.3786331180
  H         4.3672060240        3.0889532470        4.3641947569
  C         5.9644659648        5.8074275663        5.5413469942
  H         6.6532944714        4.9851915997        5.2458763162
  H         4.9293268493        5.3658093129        5.6169858168
  H         6.0021487791        6.5720905186        4.7296421711
  H         6.2775234788        6.1689875398        6.4969462972
      10
 i =       34, time =       34.000, E =       -16.1434631635
  C         4.1399625419        3.5988743345        3.3830192901
  H         4.7771982742        3.0143359233        2.7139275443
  H         3.0550811657        3.6379668013        3.1256259314
  H         4.5921626504        4.6037135282        3.3572065074
  H         4.3611471968        3.0872383846        4.3687508818
  C         5.9636829976        5.8113261079        5.5419308970
  H         6.6587555938        4.9963507819        5.2729288552
  H         4.9254333575        5.3520026137        5.6375027341
  H         5.9968145223        6.5534955710        4.7158985615
  H         6.2898984662        6.2041470506        6.4928637205
      10
 i =       35, time =       35.000, E =       -16.1440098128
  C         4.1447015820        3.5959805538        3.3800247526
  H         4.7873111925        3.0147388464        2.7133612051
  H         3.0634018788        3.6397247402        3.1172867772
  H         4.5779914623        4.6167683675        3.3381630454
  H         4.3476772915        3.0923934649        4.3670093442
  C         5.9623157317        5.8148377700        5.5406610091
  H         6.6648153465        5.0095253680        5.2989565155
  H         4.9295511810        5.3451156147        5.6595966924
  H         5.9938858057        6.5339148551        4.7103918408
  H         6.3035396897        6.2393046871        6.4924177877
      10
 i =       36, time =       36.000, E =       -16.1451469449
  C         4.1501664021        3.5929673793        3.3770385991
  H         4.7924347961        3.0134676873        2.7049969816
  H         3.0803379288        3.6362746936        3.1086856224
  H         4.5624937701        4.6264904756        3.3228279244
  H         4.3280955294        3.1048359070        4.3612660709
  C         5.9608763313        5.8174486340        5.5398284466
  H         6.6707897725        5.0211283842        5.3237957777
  H         4.9443198487        5.3426502081        5.6793611336
  H         5.9885347194        6.5170984523        4.7069938529
  H         6.3165729639        6.2809196017        6.4918880560
      10
 i =       37, time =       37.000, E =       -16.1461653993
  C         4.1559280611        3.5898520238        3.3739234188
  H         4.7921636937        3.0085827468        2.6945695894
  H         3.1019757208        3.6266966171        3.1002198087
  H         4.5442141403        4.6314098199        3.3107513258
  H         4.3039875940        3.1249267598        4.3529904078
  C         5.9590285599        5.8192886122        5.5398292132
  H         6.6797288464        5.0281434873        5.3487984147
  H         4.9690640534        5.3487118554        5.6971082153
  H         5.9818169932        6.5029301959        4.7038124646
  H         6.3245570528        6.3218357333        6.4865395429
      10
 i =       38, time =       38.000, E =       -16.1464446464
  C         4.1616707613        3.5878417790        3.3705006233
  H         4.7859416431        3.0029593630        2.6801999578
  H         3.1218956727        3.6150068917        3.0887319057
  H         4.5232673034        4.6328120451        3.3054365229
  H         4.2803085758        3.1488194604        4.3462458309
  C         5.9571085018        5.8210933074        5.5414709267
  H         6.6889624047        5.0301551350        5.3691306586
  H         4.9952321124        5.3589257820        5.7122117276
  H         5.9760635054        6.4932301381        4.7000633230
  H         6.3251432085        6.3592710112        6.4719220471
      10
 i =       39, time =       39.000, E =       -16.1464608773
  C         4.1679917375        3.5857720544        3.3652521726
  H         4.7769354003        3.0018383066        2.6646506711
  H         3.1356095979        3.6008045453        3.0749508584
  H         4.5044691073        4.6317910183        3.3034412393
  H         4.2568203683        3.1737114981        4.3482288025
  C         5.9559486728        5.8241207034        5.5441613224
  H         6.7002655470        5.0303112743        5.3885712954
  H         5.0160908548        5.3695048485        5.7278977751
  H         5.9663766149        6.4889159220        4.6897117514
  H         6.3211362108        6.3910111240        6.4487811766
      10
 i =       40, time =       40.000, E =       -16.1469992151
  C         4.1748253232        3.5840291526        3.3590768289
  H         4.7642859911        3.0006217479        2.6453849082
  H         3.1397565939        3.5849941828        3.0578211837
  H         4.4905301324        4.6294907624        3.3011040933
  H         4.2350705891        3.1966266004        4.3579391432
  C         5.9568113479        5.8276301832        5.5476031664
  H         6.7095344175        5.0306793240        5.4023433132
  H         5.0256776720        5.3768747101        5.7458536431
  H         5.9540695302        6.4885154498        4.6770240944
  H         6.3133291777        6.4180895640        6.4169896721
      10
 i =       41, time =       41.000, E =       -16.1475302752
  C         4.1819340869        3.5827772750        3.3518920362
  H         4.7522698424        2.9985580183        2.6262755892
  H         3.1359277066        3.5670126862        3.0377641500
  H         4.4808968496        4.6302022436        3.3005817641
  H         4.2134267623        3.2159406668        4.3731971267
  C         5.9594367293        5.8314518204        5.5508529171