      10
 i =        0, time =        0.000, E =       -16.1491446544
  C        -0.0009038671       -0.0001271590       -0.0016166368
  H        -0.0003289834       -0.0003401394       -0.0001514467
  H        -0.0002012648       -0.0003545405       -0.0001987251
  H        -0.0012705775       -0.0014996515       -0.0008471351
  H         0.0002450773        0.0003405058        0.0001389116
  C         0.0012976133        0.0016760765        0.0008755132
  H         0.0003433016        0.0002808465        0.0007729446
  H         0.0004578052        0.0000204963        0.0003966673
  H         0.0002235654        0.0000618083        0.0004122061
  H         0.0000894703       -0.0000365536        0.0001841818
      10
 i =        1, time =        1.000, E =       -16.1475562958
  C        -0.0041404746       -0.0100689409        0.0023108340
  H        -0.0009868343        0.0008531781        0.0022870131
  H         0.0094239347        0.0002285781        0.0024324146
  H        -0.0021703328        0.0038410589       -0.0023043967
  H        -0.0046229349        0.0030813565       -0.0075265324
  C        -0.0179637300        0.0182604956       -0.0183403284
  H         0.0019538804        0.0001429886       -0.0001533994
  H         0.0159868214       -0.0012064940        0.0026666093
  H        -0.0021177585       -0.0059858032        0.0002679005
  H         0.0046042033       -0.0091291152        0.0183215518
      10
 i =        2, time =        2.000, E =       -16.1446858328
  C        -0.0033360812       -0.0175776648        0.0038788622
  H        -0.0014745169        0.0020534268        0.0045418825
  H         0.0143843188        0.0014624581        0.0046618464
  H        -0.0035756205        0.0074051555       -0.0036303357
  H        -0.0085334737        0.0045161701       -0.0123760726
  C        -0.0307463314        0.0277895132       -0.0321437040
  H         0.0035937846       -0.0000802272       -0.0011066333
  H         0.0252809978       -0.0012599191        0.0048751930
  H        -0.0031985358       -0.0094707831        0.0000855320
  H         0.0075781324       -0.0148224177        0.0311725691
      10
 i =        3, time =        3.000, E =       -16.1434966881
  C        -0.0008098543       -0.0204856979        0.0023601253
  H        -0.0014508746        0.0022958937        0.0055315317
  H         0.0158644946        0.0028109549        0.0065243480
  H        -0.0053470935        0.0092223947       -0.0045414501
  H        -0.0108291068        0.0039613376       -0.0129033963
  C        -0.0331535609        0.0280716191       -0.0330828480
  H         0.0048429742       -0.0000367445       -0.0011817911
  H         0.0269416615       -0.0005993853        0.0062922393
  H        -0.0034303794       -0.0115120533        0.0003008492
  H         0.0073453275       -0.0137109552        0.0306582723
      10
 i =        4, time =        4.000, E =       -16.1445529519
  C         0.0061123661       -0.0187472423       -0.0011956520
  H        -0.0010879788        0.0020968622        0.0050466774
  H         0.0115797097        0.0045418834        0.0072615621
  H        -0.0079463026        0.0086138672       -0.0054413486
  H        -0.0112522146        0.0012759156       -0.0087755746
  C        -0.0260623001        0.0213698710       -0.0194602876
  H         0.0061292049       -0.0008455748       -0.0017640899
  H         0.0211577746       -0.0000411963        0.0067243906
  H        -0.0024224729       -0.0114637732        0.0008288835
  H         0.0037659691       -0.0067843150        0.0167305934
      10
 i =        5, time =        5.000, E =       -16.1456659461
  C         0.0139553307       -0.0130131463       -0.0074123294
  H        -0.0009525959        0.0017952248        0.0040393322
  H         0.0048010650        0.0060787234        0.0068236063
  H        -0.0109535761        0.0059541574       -0.0058654459
  H        -0.0094457646       -0.0030318602       -0.0007355739
  C        -0.0122352377        0.0077527896        0.0003161570
  H         0.0071435484       -0.0013258965       -0.0014801156
  H         0.0080579708        0.0005645044        0.0061220248
  H         0.0006731311       -0.0062061396        0.0008047765
  H        -0.0010606777        0.0014389210       -0.0026581291
      10
 i =        6, time =        6.000, E =       -16.1448444553
  C         0.0198794799       -0.0049262387       -0.0084364180
  H         0.0007821535       -0.0014013796       -0.0013383653
  H        -0.0028303874        0.0073194534        0.0058010851
  H        -0.0131581229        0.0033690929       -0.0058307968
  H        -0.0072405975       -0.0065504564        0.0066524931
  C         0.0061345609       -0.0061202456        0.0181929010
  H         0.0071683357       -0.0010736431       -0.0003113336
  H        -0.0093694535        0.0006598661        0.0046193715
  H         0.0040679972        0.0009780640        0.0003485620
  H        -0.0054325565        0.0077421930       -0.0197389083
      10
 i =        7, time =        7.000, E =       -16.1432801065
  C         0.0228875060        0.0014843719       -0.0075441707
  H         0.0022281157       -0.0045451969       -0.0063449254
  H        -0.0088343334        0.0076759738        0.0044621573
  H        -0.0136346614        0.0014177490       -0.0050264621
  H        -0.0051569040       -0.0081831388        0.0113335259
  C         0.0226400963       -0.0175898389        0.0262260122
  H         0.0054848522        0.0014157881        0.0024582658
  H        -0.0248112524        0.0000753283        0.0029548365
  H         0.0070291116        0.0076699303       -0.0003857489
  H        -0.0078126452        0.0105712575       -0.0281674402
      10
 i =        8, time =        8.000, E =       -16.1433397863
  C         0.0207163583        0.0022094774       -0.0058491548
  H         0.0023912434       -0.0056856686       -0.0090225674
  H        -0.0104138031        0.0067139439        0.0032451942
  H        -0.0112012610        0.0017458682       -0.0036795538
  H        -0.0039146027       -0.0070942949        0.0122439110
  C         0.0306279910       -0.0222015849        0.0261700279
  H         0.0028004999        0.0046011953        0.0052276481
  H        -0.0308419857       -0.0007040354        0.0015502258
  H         0.0077946021        0.0098828722       -0.0008938686
  H        -0.0079253489        0.0105285288       -0.0290163844
      10
 i =        9, time =        9.000, E =       -16.1455674521
  C         0.0123883636       -0.0013600857       -0.0027747673
  H         0.0013676613       -0.0055660884       -0.0094932862
  H        -0.0050017363        0.0043469910        0.0025556640
  H        -0.0072919730        0.0034294083       -0.0016984601
  H        -0.0037856817       -0.0029465314        0.0083956834
  C         0.0250155861       -0.0192762255        0.0195047707
  H        -0.0004276470        0.0073379662        0.0068216346
  H        -0.0225425932       -0.0013140271        0.0008024252
  H         0.0063576177        0.0067680492       -0.0006640457
  H        -0.0060442091        0.0085832222       -0.0234667447
      10
 i =       10, time =       10.000, E =       -16.1478894287
  C         0.0032332363       -0.0064165391       -0.0002509280
  H        -0.0007372619       -0.0034494385       -0.0073536068
  H         0.0027206876        0.0010503868        0.0020447495
  H        -0.0034484892        0.0037311466        0.0004126503
  H        -0.0039913488        0.0029813016        0.0021614585
  C         0.0091881527       -0.0101324400        0.0057570120
  H        -0.0030478181        0.0080891125        0.0065200725
  H        -0.0057095499       -0.0013303157        0.0003985668
  H         0.0037117627        0.0012147809        0.0000314656
  H        -0.0018918432        0.0042701546       -0.0097301182
      10
 i =       11, time =       11.000, E =       -16.1478283011
  C        -0.0040811065       -0.0116877109        0.0000461511
  H        -0.0037837364        0.0001698623       -0.0031340334
  H         0.0086834427       -0.0026946543        0.0011122768
  H         0.0007374922        0.0038521600        0.0022858465
  H        -0.0036810395        0.0082352257       -0.0032769120
  C        -0.0083677322        0.0005218671       -0.0106693154
  H        -0.0048375413        0.0077471713        0.0050870141
  H         0.0110282008       -0.0008766165       -0.0001944878
  H         0.0010300298       -0.0049996078        0.0009995036
  H         0.0032886993       -0.0002642284        0.0077428616
      10
 i =       12, time =       12.000, E =       -16.1456897952
  C        -0.0095262237       -0.0144843876       -0.0023128167
  H        -0.0070148519        0.0040236055        0.0016526515
  H         0.0126549179       -0.0062325626       -0.0001936252
  H         0.0042130242        0.0027726590        0.0041027492
  H        -0.0023479677        0.0117849205       -0.0061925043
  C        -0.0237337500        0.0104470968       -0.0252694815
  H        -0.0045965953        0.0052338401        0.0019739871
  H         0.0232459795       -0.0000467623       -0.0006598770
  H        -0.0010143724       -0.0093684359        0.0015592145
  H         0.0081273952       -0.0041348220        0.0253447774
      10
 i =       13, time =       13.000, E =       -16.1441105551
  C        -0.0094027140       -0.0122040128       -0.0056713337
  H        -0.0092431988        0.0069966214        0.0052953400
  H         0.0116057726       -0.0085929454       -0.0016025942
  H         0.0057266597       -0.0012489816        0.0053085476
  H        -0.0006206578        0.0129011932       -0.0062618306
  C        -0.0325281375        0.0141825609       -0.0260563240
  H        -0.0032445889        0.0012534406       -0.0015180887
  H         0.0296157843        0.0005557571       -0.0013683957
  H        -0.0015648943       -0.0091603660        0.0013139562
  H         0.0096540353       -0.0047025447        0.0305708507
      10
 i =       14, time =       14.000, E =       -16.1444184978
  C        -0.0090974174       -0.0086201120       -0.0074109203
  H        -0.0098372336        0.0081320312        0.0065698235
  H         0.0082712230       -0.0100512667       -0.0030398490
  H         0.0074717910       -0.0041219502        0.0060004881
  H         0.0013436683        0.0125319528       -0.0050100189
  C        -0.0325186028        0.0125416288       -0.0111242345
  H        -0.0003707775       -0.0040396310       -0.0055757429
  H         0.0279907836        0.0006438011       -0.0019342785
  H        -0.0006024502       -0.0041663182       -0.0002606144
  H         0.0073366314       -0.0028821887        0.0217974805
      10
 i =       15, time =       15.000, E =       -16.1455253396
  C        -0.0066468313       -0.0025571663       -0.0110168370
  H        -0.0091259335        0.0083262444        0.0066400283
  H         0.0013580113       -0.0100801807       -0.0045577198
  H         0.0087912313       -0.0067158584        0.0059066309
  H         0.0038474599        0.0089480057        0.0001978125
  C        -0.0222379657        0.0091042533        0.0092324903
  H         0.0022073014       -0.0079141907       -0.0081449960
  H         0.0179604980       -0.0001458618       -0.0023771199
  H         0.0007670366        0.0019761061       -0.0025025649
  H         0.0030567649       -0.0009779441        0.0066350731
      10
 i =       16, time =       16.000, E =       -16.1457840572
  C        -0.0052811127        0.0049967256       -0.0132588736
  H        -0.0061232167        0.0057657129        0.0040820881
  H        -0.0064416676       -0.0087904885       -0.0056111584
  H         0.0097959437       -0.0076859306        0.0053824615
  H         0.0063371358        0.0037127470        0.0066539512
  C        -0.0028822860        0.0048728859        0.0268753259
  H         0.0031942294       -0.0085233659       -0.0078250420
  H         0.0004750383       -0.0020680913       -0.0026320065
  H         0.0023585607        0.0078312358       -0.0048625212
  H        -0.0014643425       -0.0001483864       -0.0087866653
      10
 i =       17, time =       17.000, E =       -16.1446248681
  C        -0.0081662791        0.0131150333       -0.0142100666
  H        -0.0022845199        0.0021225857        0.0004119952
  H        -0.0091698387       -0.0076454399       -0.0056579930
  H         0.0099683772       -0.0080375371        0.0044128618
  H         0.0080010832       -0.0014707795        0.0123711823
  C         0.0184335215        0.0015390377        0.0380095768
  H         0.0024821128       -0.0065689362       -0.0059356053
  H        -0.0184377307       -0.0048707040       -0.0030491824
  H         0.0037815116        0.0118452866       -0.0065992297
  H        -0.0046425255       -0.0000548688       -0.0197348525
      10
 i =       18, time =       18.000, E =       -16.1437174595
  C        -0.0120426137        0.0189426990       -0.0119284501
  H         0.0013247225       -0.0014096891       -0.0027741788
  H        -0.0092378819       -0.0063949824       -0.0054119582
  H         0.0093730486       -0.0082786537        0.0031475356
  H         0.0089789320       -0.0047180662        0.0143250958
  C         0.0358472620        0.0018946900        0.0380283092
  H        -0.0002609896       -0.0011107137       -0.0020112550
  H        -0.0315666449       -0.0071364562       -0.0029894759
  H         0.0035743069        0.0090148345       -0.0062468246
  H        -0.0060188501       -0.0008205076       -0.0241214396
      10
 i =       19, time =       19.000, E =       -16.1446958995
  C        -0.0179973870        0.0209065556       -0.0035862754
  H         0.0058265325       -0.0060492122       -0.0071296473
  H        -0.0063759953       -0.0049804146       -0.0038760854
  H         0.0084185999       -0.0069619805        0.0017046123
  H         0.0085753841       -0.0047546958        0.0102378373
  C         0.0376790717        0.0030041577        0.0280671335
  H        -0.0034765091        0.0049028680        0.0017758996
  H        -0.0300542350       -0.0070214991       -0.0023151834
  H         0.0024253822        0.0025923212       -0.0043855526
  H        -0.0050333183       -0.0016465227       -0.0204746777
      10
 i =       20, time =       20.000, E =       -16.1464734800
  C        -0.0236612555        0.0166839777        0.0044880858
  H         0.0082168585       -0.0076367179       -0.0069440845
  H        -0.0008781371       -0.0039337172       -0.0016752876
  H         0.0076082873       -0.0044908329        0.0000892600
  H         0.0072021600       -0.0024928018        0.0013357575
  C         0.0234588438        0.0019870214        0.0117862441
  H        -0.0061497212        0.0097120932        0.0045653405
  H        -0.0144659077       -0.0039237897       -0.0007982003
  H         0.0011221760       -0.0037287791       -0.0022406471
  H        -0.0024442544       -0.0021817100       -0.0105819386
      10
 i =       21, time =       21.000, E =       -16.1468679200
  C        -0.0273408456        0.0091151019        0.0107324963
  H         0.0092829093       -0.0074084808       -0.0043457391
  H         0.0046897898       -0.0024071343        0.0007133718
  H         0.0064884333       -0.0012519876       -0.0016015883
  H         0.0054006629        0.0000284465       -0.0082846542
  C         0.0019506096        0.0002681645       -0.0074332916
  H        -0.0069940951        0.0119733408        0.0056546746
  H         0.0052330066        0.0006594398        0.0012202783
  H         0.0001480981       -0.0088575590       -0.0003213215
  H         0.0011701887       -0.0021168898        0.0037026941
      10
 i =       22, time =       22.000, E =       -16.1455977246
  C        -0.0273535409        0.0012526595        0.0122280435
  H         0.0091892615       -0.0053017433        0.0001653378
  H         0.0085513825       -0.0001480936        0.0029599559
  H         0.0045535474        0.0009296336       -0.0033402709
  H         0.0036183626        0.0013134185       -0.0148442616
  C        -0.0183984312       -0.0002834128       -0.0247854029
  H        -0.0055251299        0.0108015151        0.0047621486
  H         0.0202913346        0.0044439689        0.0028251890
  H        -0.0000396848       -0.0119991423        0.0013090194
  H         0.0051604822       -0.0010032041        0.0187660262
      10
 i =       23, time =       23.000, E =       -16.1444010508
  C        -0.0241341030       -0.0033135026        0.0097051848
  H         0.0083846997       -0.0026766258        0.0047482446
  H         0.0107909953        0.0024219024        0.0047761007
  H         0.0014634951        0.0011615225       -0.0052550841
  H         0.0020856736        0.0004457099       -0.0168271932
  C        -0.0306801003        0.0004049956       -0.0329052221
  H        -0.0024484044        0.0079480124        0.0030187431
  H         0.0267943569        0.0065862585        0.0040038920
  H         0.0005559689       -0.0132933644        0.0025735241
  H         0.0072478152        0.0003127698        0.0262009365
      10
 i =       24, time =       24.000, E =       -16.1448461809
  C        -0.0161010594       -0.0050238812        0.0060794475
  H         0.0070633784       -0.0005304546        0.0081409945
  H         0.0088805110        0.0048629745        0.0054166551
  H        -0.0020554476        0.0002299908       -0.0068595562
  H         0.0008329621       -0.0014708806       -0.0156122079
  C        -0.0345461549        0.0024978532       -0.0260265909
  H         0.0019038975        0.0030708192        0.0009236102
  H         0.0263662627        0.0071505665        0.0045586581
  H         0.0014470349       -0.0110706276        0.0026223342
  H         0.0062737470        0.0002676308        0.0207824241
      10
 i =       25, time =       25.000, E =       -16.1461380409
  C        -0.0039010654       -0.0058362971        0.0014968898
  H         0.0050046664        0.0016758701        0.0106433049
  H         0.0032613384        0.0070116702        0.0048347347
  H        -0.0054814529       -0.0007167826       -0.0081415647
  H        -0.0002227660       -0.0039942597       -0.0115898675
  C        -0.0305867913        0.0081850220       -0.0065159149
  H         0.0072654526       -0.0035579961       -0.0017692654
  H         0.0194336157        0.0057481700        0.0043773663
  H         0.0024395535       -0.0068820965        0.0018503722
  H         0.0028532467       -0.0016607001        0.0048356190
      10
 i =       26, time =       26.000, E =       -16.1466051653
  C         0.0088063973       -0.0048462792       -0.0051360731
  H         0.0024456472        0.0036321617        0.0116624071
  H        -0.0034697241        0.0085295280        0.0032461389
  H        -0.0085327087       -0.0015652316       -0.0088762227
  H        -0.0005320680       -0.0074942083       -0.0035112373
  C        -0.0190692540        0.0135468721        0.0097720044
  H         0.0108473661       -0.0076379586       -0.0030419135
  H         0.0064963532        0.0024548577        0.0039492260
  H         0.0032093891       -0.0028330369        0.0010153654
  H        -0.0001406037       -0.0038182285       -0.0090604509
      10
 i =       27, time =       27.000, E =       -16.1461247588
  C         0.0204948282       -0.0033002838       -0.0095919189
  H         0.0008387933        0.0039342844        0.0092607926
  H        -0.0115775796        0.0091402229        0.0011569655
  H        -0.0101553113       -0.0009225570       -0.0088454821
  H        -0.0008050878       -0.0104551082        0.0055948670
  C        -0.0035407462        0.0156584385        0.0179432430
  H         0.0112260254       -0.0081036443       -0.0025007310
  H        -0.0081611176       -0.0019734655        0.0035552137
  H         0.0036718328        0.0007665221        0.0006790785
  H        -0.0019436675       -0.0047781909       -0.0172374451
      10
 i =       28, time =       28.000, E =       -16.1452210260
  C         0.0281315646       -0.0028012430       -0.0139671365
  H        -0.0013062761        0.0041883199        0.0060180261
  H        -0.0161795420        0.0086534212       -0.0005320174
  H        -0.0105246174        0.0009209145       -0.0080686988
  H        -0.0012359124       -0.0124158865        0.0143405462
  C         0.0148568959        0.0124285067        0.0184836968
  H         0.0075534414       -0.0038162607        0.0000805397
  H        -0.0229302313       -0.0071248772        0.0031816709
  H         0.0039450495        0.0042470809        0.0000704599
  H        -0.0022767929       -0.0043071738       -0.0195957691
      10
 i =       29, time =       29.000, E =       -16.1452604449
  C         0.0289904120       -0.0066041807       -0.0148740889
  H        -0.0043219987        0.0047395282        0.0028563571
  H        -0.0136795086        0.0070550446       -0.0009385135
  H        -0.0092730137        0.0040802652       -0.0062535461
  H        -0.0027468983       -0.0106015893        0.0171998612
  C         0.0255075407        0.0054694564        0.0121384545
  H         0.0019401599        0.0019959812        0.0028861427
  H        -0.0283789103       -0.0093379163        0.0025279438
  H         0.0032153911        0.0053051143        0.0008024037
  H        -0.0012320893       -0.0021210769       -0.0163384911
      10
 i =       30, time =       30.000, E =       -16.1461627170
  C         0.0277428692       -0.0104785632       -0.0109010303
  H        -0.0067876392        0.0041167896       -0.0009997467
  H        -0.0085730160        0.0047579468       -0.0005483042
  H        -0.0079583926        0.0062147870       -0.0039305445
  H        -0.0053859762       -0.0058577947        0.0145240576
  C         0.0215114259       -0.0033940009        0.0001974003
  H        -0.0027827101        0.0064620662        0.0045959155
  H        -0.0205757332       -0.0065401532        0.0015114358
  H         0.0017577352        0.0032709357        0.0034304309
  H         0.0010672121        0.0014361852       -0.0078767519
      10
 i =       31, time =       31.000, E =       -16.1465059003
  C         0.0216007025       -0.0144597914       -0.0028261384
  H        -0.0080760954        0.0020447997       -0.0054530481
  H         0.0007456536        0.0019093460        0.0010230197
  H        -0.0062936343        0.0078976276       -0.0011653082
  H        -0.0088822004        0.0014151683        0.0066813803
  C         0.0107986921       -0.0114844795       -0.0134339565
  H        -0.0059817481        0.0086643349        0.0048371205
  H        -0.0074765894       -0.0013403459        0.0004142892
  H         0.0002938138       -0.0004596779        0.0075394278
  H         0.0032875040        0.0058078720        0.0023807931
      10
 i =       32, time =       32.000, E =       -16.1453292531
  C         0.0157343955       -0.0143633981        0.0063998977
  H        -0.0084397698       -0.0008480015       -0.0096274934
  H         0.0100291764       -0.0007692180        0.0025382633
  H        -0.0062945874        0.0062117930        0.0014252384
  H        -0.0118970541        0.0086054780       -0.0024040966
  C        -0.0026954172       -0.0184045903       -0.0251702057
  H        -0.0069086667        0.0082264066        0.0037196449
  H         0.0062361696        0.0046589258       -0.0005179781
  H        -0.0008580692       -0.0036069149        0.0110161143
  H         0.0051107095        0.0102883446        0.0126029284
      10
 i =       33, time =       33.000, E =       -16.1438578644
  C         0.0121247474       -0.0122019223        0.0132375696
  H        -0.0084057733       -0.0033721037       -0.0125168378
  H         0.0146255974       -0.0032736019        0.0028126641
  H        -0.0059354023        0.0040648912        0.0038007042
  H        -0.0132374625        0.0136499222       -0.0089290605
  C        -0.0131072040       -0.0206761373       -0.0270113711
  H        -0.0052954152        0.0049468407        0.0018981262
  H         0.0165280349        0.0097449597       -0.0014739325
  H        -0.0019857765       -0.0049625276        0.0127680079
  H         0.0047122297        0.0120807299        0.0153815206
      10
 i =       34, time =       34.000, E =       -16.1434631635
  C         0.0105953544       -0.0069721407        0.0154241054
  H        -0.0083978771       -0.0047084386       -0.0136793298
  H         0.0157259746       -0.0052305695        0.0022259146
  H        -0.0060157729       -0.0002812843        0.0059076705
  H        -0.0126950190        0.0160972199       -0.0113966876
  C        -0.0170736790       -0.0194870712       -0.0153584749
  H        -0.0024713704        0.0006932834       -0.0000948066
  H         0.0220592349        0.0131335150       -0.0022310881
  H        -0.0028029278       -0.0029333803        0.0105802561
  H         0.0011087092        0.0096973101        0.0085791721
      10
 i =       35, time =       35.000, E =       -16.1440098128
  C         0.0100236811        0.0000094679        0.0120229747
  H        -0.0083335232       -0.0048159770       -0.0131238889
  H         0.0139432097       -0.0065965152        0.0013059423
  H        -0.0058372277       -0.0052157830        0.0075839989
  H        -0.0105416032        0.0155756984       -0.0092223071
  C        -0.0155516938       -0.0164477224        0.0030536211
  H         0.0006928243       -0.0040660717       -0.0019983445
  H         0.0227552355        0.0142333873       -0.0030990377
  H        -0.0036098865        0.0019315040        0.0046371662
  H        -0.0035029978        0.0054117603       -0.0012133733
      10
 i =       36, time =       36.000, E =       -16.1451469449
  C         0.0121840686        0.0059640045        0.0049169104
  H        -0.0083507717       -0.0039147568       -0.0105266495
  H         0.0072504208       -0.0070509142       -0.0006877804
  H        -0.0047534032       -0.0082971565        0.0085823665
  H        -0.0070212970        0.0123341477       -0.0036099253
  C        -0.0085642914       -0.0097704425        0.0202327187
  H         0.0038528915       -0.0076852994       -0.0033129615
  H         0.0177897841        0.0128704813       -0.0029429144
  H        -0.0040883833        0.0059910416       -0.0014591810
  H        -0.0082639390       -0.0004088544       -0.0112542526
      10
 i =       37, time =       37.000, E =       -16.1461653993
  C         0.0150996116        0.0106363515       -0.0045767300
  H        -0.0076022080       -0.0027895030       -0.0073246669
  H        -0.0028447781       -0.0067970719       -0.0035881546
  H        -0.0025714272       -0.0086652909        0.0086926703
  H        -0.0027129054        0.0067568851        0.0056160615
  C         0.0059202776       -0.0019477854        0.0305570726
  H         0.0046046764       -0.0080893999       -0.0038447842
  H         0.0056026271        0.0076374338       -0.0015311164
  H        -0.0041175961        0.0085174027       -0.0065473464
  H        -0.0113612360       -0.0052102000       -0.0175175205
      10
 i =       38, time =       38.000, E =       -16.1464446464
  C         0.0161103228        0.0125740495       -0.0142314508
  H        -0.0060978210       -0.0014013098       -0.0035463621
  H        -0.0121828642       -0.0062770128       -0.0059287589
  H         0.0005543751       -0.0062017461        0.0076996422
  H         0.0010345615        0.0005526604        0.0149760855
  C         0.0238762445        0.0050697592        0.0309374872
  H         0.0029678843       -0.0054763376       -0.0034796237
  H        -0.0102860513        0.0003464952        0.0008820842
  H        -0.0041613389        0.0086425642       -0.0093996125
  H        -0.0118277424       -0.0077692188       -0.0179678159
      10
 i =       39, time =       39.000, E =       -16.1464608773
  C         0.0122458851        0.0126930525       -0.0170098878
  H        -0.0027578130       -0.0020039589       -0.0011081991
  H        -0.0170371040       -0.0055157640       -0.0070073195
  H         0.0032949876       -0.0023847270        0.0061452185
  H         0.0037129104       -0.0034586907        0.0180939860
  C         0.0393042523        0.0106307622        0.0215311305
  H        -0.0004983953       -0.0010982120       -0.0031765429
  H        -0.0241873707       -0.0064643867        0.0033501411
  H        -0.0039629931        0.0047317408       -0.0073501484
  H        -0.0101583982       -0.0070634036       -0.0135048438
      10
 i =       40, time =       40.000, E =       -16.1469992151
  C         0.0023053498        0.0098676255       -0.0152093049
  H         0.0008718896       -0.0029753204        0.0014709156
  H        -0.0144888131       -0.0043094425       -0.0055653145
  H         0.0052982596        0.0016926863        0.0043875945
  H         0.0055169129       -0.0049038993        0.0141457883
  C         0.0427573148        0.0113214244        0.0063008680
  H        -0.0033835175        0.0025228466       -0.0028942134
  H        -0.0290200051       -0.0091700278        0.0042849122
  H        -0.0038050879       -0.0010251968       -0.0029679012
  H        -0.0061071310       -0.0029679496       -0.0039637644
      10
 i =       41, time =       41.000, E =       -16.1475302752
  C        -0.0114808975        0.0065078548       -0.0093471742
  H         0.0043245191       -0.0038024619        0.0038848713
  H        -0.0062454692       -0.0024976831       -0.0023042221
  H         0.0060088279        0.0035266506        0.0025396157
  H         0.0069413377       -0.0043620198        0.0045183429
  C         0.0323597858        0.0062372641       -0.0084684850