
10 atoms
2 atom types
   0.0   20.0 xlo xhi
   0.0   20.0 ylo yhi
   0.0   20.0 zlo zhi
   0.0   0.0  0.0 xy xz yz

Atoms # atomic

     1      1    -4.1628400000    4.7731400000    4.5439000000
     2      2    -4.4513900000    4.3269700000    3.5664500000
     3      2    -3.0585900000    4.9453900000    4.5274400000
     4      2    -4.6173700000    5.7721300000    4.6488800000
     5      2    -4.4695700000    4.1304600000    5.3741500000
     6      1    6.1628400000    4.7731400000    4.5439000000
     7      2    6.4513900000    4.3269700000    3.5664500000
     8      2    5.0585900000    4.9453900000    4.5274400000
     9      2    6.6173700000    5.7721300000    4.6488800000
    10      2    6.4695700000    4.1304600000    5.3741500000
